Topology written by topology at 2022-07-14 12:33:08.502959

8 atoms

8 atom types
7 bond types
12 angle types
9 dihedral types

0.000000 2.330820 xlo xhi
0.000000 1.907180 ylo yhi
0.000000 2.023120 zlo zhi

Masses

1	12.011000	# opls_135
2	12.011000	# opls_135
3	1.008000	# opls_140
4	1.008000	# opls_140
5	1.008000	# opls_140
6	1.008000	# opls_140
7	1.008000	# opls_140
8	1.008000	# opls_140

Pair Coeffs # lj

1	0.06600	3.50000
2	0.06600	3.50000
3	0.03000	2.50000
4	0.03000	2.50000
5	0.03000	2.50000
6	0.03000	2.50000
7	0.03000	2.50000
8	0.03000	2.50000

Bond Coeffs

1	268.00000	1.52900
2	340.00000	1.09000
3	340.00000	1.09000
4	340.00000	1.09000
5	340.00000	1.09000
6	340.00000	1.09000
7	340.00000	1.09000

Angle Coeffs

1	33.00000	107.80000
2	37.50000	110.70000
3	33.00000	107.80000
4	33.00000	107.80000
5	37.50000	110.70000
6	37.50000	110.70000
7	37.50000	110.70000
8	33.00000	107.80000
9	33.00000	107.80000
10	37.50000	110.70000
11	33.00000	107.80000
12	37.50000	110.70000

Dihedral Coeffs

1	0.00000	-0.000000	0.300000	-0.00000
2	0.00000	-0.000000	0.300000	-0.00000
3	0.00000	-0.000000	0.300000	-0.00000
4	0.00000	-0.000000	0.300000	-0.00000
5	0.00000	-0.000000	0.300000	-0.00000
6	0.00000	-0.000000	0.300000	-0.00000
7	0.00000	-0.000000	0.300000	-0.00000
8	0.00000	-0.000000	0.300000	-0.00000
9	0.00000	-0.000000	0.300000	-0.00000

Atoms

1	1	-0.759075	0.018289	0.021174
2	2	0.759075	-0.018289	-0.021174
3	3	-1.140780	-0.853560	0.593134
4	4	-1.099462	0.953590	0.513422
5	5	-1.165410	-0.017973	-1.011558
6	6	1.099462	-0.953585	-0.513429
7	7	1.140781	0.853564	-0.593128
8	8	1.165409	0.017965	1.011559

Bonds

1	1	2	1
2	2	3	1
3	3	4	1
4	4	5	1
5	5	6	2
6	6	7	2
7	7	8	2

Angles

1	1	3	1	4
2	2	3	1	2
3	3	3	1	5
4	4	4	1	5
5	5	4	1	2
6	6	5	1	2
7	7	6	2	1
8	8	6	2	8
9	9	6	2	7
10	10	7	2	1
11	11	7	2	8
12	12	8	2	1

Dihedrals

1	1	3	1	2	7
2	2	3	1	2	6
3	3	3	1	2	8
4	4	4	1	2	7
5	5	4	1	2	6
6	6	4	1	2	8
7	7	5	1	2	7
8	8	5	1	2	6
9	9	5	1	2	8
